 Gaussian 16, Revision C.01,
 Gaussian 16:  ES64L-G16RevC.01  3-Jul-2019

 ----------------------------------------------------
 #b3lyp/gen pseudo=cards symm=loose freq pop=nbo7read
 ----------------------------------------------------

 ---------------
 WH6...b3lyp/vdz
 ---------------
 Symbolic Z-matrix:
 Charge =  0 Multiplicity = 1

                         Standard orientation:
 ---------------------------------------------------------------------
 Center     Atomic      Atomic             Coordinates (Angstroms)
 Number     Number       Type             X           Y           Z
 ---------------------------------------------------------------------
      1         74           0        0.000000    0.000000    0.021941
      2          1           0        0.000000    0.000000    1.757936
      3          1           0        0.000000    1.529392   -0.676319
      4          1           0        1.454538    0.472608   -0.676319
      5          1           0        0.898954   -1.237304   -0.676319
      6          1           0       -1.454538    0.472608   -0.676319
      7          1           0       -0.898954   -1.237304   -0.676319
 ---------------------------------------------------------------------

 SCF Done:  E(RB3LYP) =  -70.9733516465     A.U. after   14 cycles

 The electronic state is 1-A1.
 Alpha  occ. eigenvalues --   -2.98416  -1.67027  -1.65025  -1.65025  -0.42994
 Alpha  occ. eigenvalues --   -0.35638  -0.34024  -0.34024  -0.30084  -0.30084
 Alpha virt. eigenvalues --   -0.10222  -0.10222  -0.09660   0.06544   0.07779
 Alpha virt. eigenvalues --    0.07779   0.09308   0.09408   0.09408   0.12936
 Alpha virt. eigenvalues --    0.13353   0.13353   0.15693   0.15693   0.26911

 Mulliken charges:
               1
     1  W   -0.225256
     2  H   -0.083425
     3  H    0.061736
     4  H    0.061736
     5  H    0.061736
     6  H    0.061736
     7  H    0.061736
 Sum of Mulliken charges =   0.00000

 Dipole moment (field-independent basis, Debye):
    X=              0.0000    Y=              0.0000    Z=              1.2864  Tot=              1.2864
 Quadrupole moment (field-independent basis, Debye-Ang):
   XX=            -30.7012   YY=            -30.7012   ZZ=            -29.7879
   XY=              0.0000   XZ=             -0.0000   YZ=             -0.0000

  Exact polarizability:      48.118       0.000      48.119      -0.000      -0.000      42.167
 Approx polarizability:      81.787      -0.000      81.787       0.000       0.000      67.296

 Summary of Natural Population Analysis:

                                     Natural Population
             Natural    ---------------------------------------------
  Atom No    Charge        Core      Valence    Rydberg      Total
 --------------------------------------------------------------------
    W  1    0.36063     67.99842     5.59449    0.04646    73.63937
    H  2   -0.18199      0.00000     1.17935    0.00264     1.18199
    H  3   -0.03573      0.00000     1.03339    0.00234     1.03573
    H  4   -0.03573      0.00000     1.03339    0.00234     1.03573
    H  5   -0.03573      0.00000     1.03339    0.00234     1.03573
    H  6   -0.03573      0.00000     1.03339    0.00234     1.03573
    H  7   -0.03573      0.00000     1.03339    0.00234     1.03573
 ====================================================================
 * Total *  0.00000     67.99842    11.94079    0.06079    80.00000

                      1                      2                      3
                     E2                     E2                     E1
 Frequencies --    665.8275               665.8275               764.9847
 Red. masses --      1.0078                 1.0078                 1.0242
 Frc consts  --      0.2632                 0.2632                 0.3531
 IR Inten    --      0.0000                 0.0000                 6.9857

                      4                      5                      6
                     E1                     E1                     E1
 Frequencies --    764.9861               913.2106               913.2108
 Red. masses --      1.0242                 1.0100                 1.0100
 Frc consts  --      0.3531                 0.4963                 0.4963
 IR Inten    --      6.9849               107.8091               107.8086

                      7                      8                      9
                     A1                     E2                     E2
 Frequencies --    972.1877              1085.6333              1085.6333
 Red. masses --      1.0281                 1.0078                 1.0078
 Frc consts  --      0.5725                 0.6998                 0.6998
 IR Inten    --      2.9504                 0.0000                 0.0000

                     10                     11                     12
                     A1                     E2                     E2
 Frequencies --   1947.8285              2003.7591              2003.7591
 Red. masses --      1.0154                 1.0078                 1.0078
 Frc consts  --      2.2697                 2.3841                 2.3841
 IR Inten    --    264.0165                 0.0000                 0.0000

                     13                     14                     15
                     E1                     E1                     A1
 Frequencies --   2034.1159              2034.1159              2067.7777
 Red. masses --      1.0202                 1.0202                 1.0123
 Frc consts  --      2.4870                 2.4870                 2.5503
 IR Inten    --    234.8222               234.8229                19.3282

 - Thermochemistry -
 -------------------
 Temperature   298.150 Kelvin.  Pressure   1.00000 Atm.
 Atom     1 has atomic number 74 and mass 183.95100

 Molecular mass:   189.99795 amu.
 Principal axes and moments of inertia in atomic units:
                           1         2         3
     Eigenvalues --    40.60679  40.60679  42.09112
           X           -0.00000   1.00000   0.00000
           Y            1.00000   0.00000   0.00000
           Z            0.00000   0.00000   1.00000
 This molecule is an oblate symmetric top.
 Rotational symmetry number  5.
 Rotational temperatures (Kelvin)      2.13299     2.13299     2.05777
 Rotational constants (GHZ):          44.44433    44.44433    42.87700
 Zero-point vibrational energy     119165.2 (Joules/Mol)
                                   28.48115 (Kcal/Mol)
 Vibrational temperatures:    957.98   957.98  1100.64  1100.64  1313.91
          (Kelvin)           1313.91  1398.76  1561.98  1561.98  2802.49
                             2882.96  2882.96  2926.64  2926.64  2975.07

 Zero-point correction=                           0.045388 (Hartree/Particle)
 Thermal correction to Energy=                    0.048853
 Thermal correction to Enthalpy=                  0.049797
 Thermal correction to Gibbs Free Energy=         0.021766
 Sum of electronic and zero-point Energies=            -70.927964
 Sum of electronic and thermal Energies=               -70.924499
 Sum of electronic and thermal Enthalpies=             -70.923555
 Sum of electronic and thermal Free Energies=          -70.951586

                     E (Thermal)             CV                S
                      KCal/Mol        Cal/Mol-Kelvin    Cal/Mol-Kelvin
 Total                   30.655             11.200             58.996
 Electronic               0.000              0.000              0.000
 Translational            0.889              2.981             41.631
 Rotational               0.889              2.981             15.681
 Vibrational             28.878              5.239              1.684

 Optimization completed.
    -- Stationary point found.
 Normal termination of Gaussian 16 at Sat Aug 17 18:08:42 2019.
